# vtk DataFile Version 3.0
This file was generated by ESTES 
ASCII
DATASET UNSTRUCTURED_GRID
POINTS 173 double
0.705882 1 0
0.735294 1 0
0.764706 1 0
0.794118 1 0
0.823529 1 0
0.852941 1 0
0.882353 1 0
0.911765 1 0
0.941176 1 0
0.970588 1 0
1 0.969697 0
1 1 0
1 0.909091 0
1 0.878788 0
1 0.818182 0
1 0.757576 0
1 0.727273 0
1 0.666667 0
1 0.606061 0
1 0.939394 0
1 0.848485 0
1 0.787879 0
1 0.69697 0
1 0.636364 0
0.720518 0.974013 0
0.749973 0.974018 0
0.779402 0.97402 0
0.80882 0.97402 0
0.838479 0.973932 0
0.868375 0.973706 0
0.898409 0.973651 0
0.929335 0.972979 0
0.962178 0.971595 0
0.69099 0.973986 0
0.705597 0.948001 0
0.735172 0.948034 0
0.764654 0.948039 0
0.794096 0.94804 0
0.82368 0.948009 0
0.853766 0.94782 0
0.883664 0.947676 0
0.91512 0.947008 0
0.947064 0.945446 0
0.67581 0.947827 0
0.690662 0.921975 0
0.720326 0.922045 0
0.749872 0.922061 0
0.779352 0.922062 0
0.808827 0.922064 0
0.838937 0.92191 0
0.869426 0.921679 0
0.90014 0.921487 0
0.93133 0.920646 0
0.978974 0.942066 0
0.660817 0.921819 0
0.675425 0.895855 0
0.705368 0.896032 0
0.735037 0.896078 0
0.764578 0.896086 0
0.794062 0.896087 0
0.824191 0.895986 0
0.854619 0.895821 0
0.885077 0.895746 0
0.916121 0.89546 0
0.963607 0.918261 0
0.690246 0.869945 0
0.720114 0.870079 0
0.749758 0.870108 0
0.779291 0.870111 0
0.809365 0.870048 0
0.83979 0.869971 0
0.870283 0.869886 0
0.900986 0.869859 0
0.946521 0.895148 0
0.660432 0.8699 0
0.675456 0.84399 0
0.705248 0.844082 0
0.734929 0.844128 0
0.764506 0.844136 0
0.794388 0.844153 0
0.824597 0.844086 0
0.854862 0.844044 0
0.885911 0.844004 0
0.932423 0.869925 0
0.690382 0.818112 0
0.720106 0.818148 0
0.749716 0.818161 0
0.77933 0.818192 0
0.809611 0.818171 0
0.840137 0.818185 0
0.870563 0.818267 0
0.916948 0.844108 0
0.705214 0.792185 0
0.7349 0.792188 0
0.764495 0.792201 0
0.794485 0.792267 0
0.82508 0.792289 0
0.85538 0.792327 0
0.901395 0.818239 0
0.719996 0.766232 0
0.749665 0.766223 0
0.779332 0.766273 0
0.809496 0.766311 0
0.840162 0.766449 0
0.886245 0.792461 0
0.734779 0.740268 0
0.764439 0.740271 0
0.79434 0.740354 0
0.8248 0.740432 0
0.870738 0.766602 0
0.705 0.740308 0
0.719891 0.714342 0
0.749578 0.714302 0
0.779446 0.714358 0
0.80971 0.714505 0
0.85542 0.740622 0
0.734699 0.688335 0
0.764595 0.688378 0
0.794584 0.688509 0
0.83995 0.714598 0
0.749649 0.662376 0
0.779795 0.66227 0
0.825132 0.688572 0
0.719561 0.662149 0
0.734771 0.635489 0
0.764969 0.635689 0
0.810316 0.662205 0
0.795317 0.635742 0
0.9755 0.894356 0
0.96455 0.8713 0
0.948469 0.844616 0
0.933111 0.818254 0
0.917149 0.792425 0
0.901428 0.766745 0
0.885776 0.740838 0
0.870864 0.7148 0
0.855964 0.688752 0
0.840922 0.662221 0
0.825999 0.63552 0
0.979855 0.846419 0
0.965656 0.818397 0
0.949056 0.791883 0
0.933012 0.766655 0
0.916837 0.741249 0
0.901796 0.715332 0
0.88663 0.688929 0
0.871851 0.662342 0
0.856527 0.635869 0
0.810791 0.609004 0
0.841329 0.608997 0
0.980052 0.789895 0
0.964868 0.765348 0
0.947629 0.741605 0
0.932941 0.716064 0
0.918078 0.68938 0
0.902809 0.662764 0
0.887479 0.63578 0
0.872118 0.608891 0
0.826113 0.582055 0
0.97579 0.742113 0
0.964902 0.718402 0
0.949393 0.690853 0
0.93425 0.663309 0
0.918721 0.635676 0
0.903117 0.608752 0
0.856968 0.581748 0
0.980313 0.694103 0
0.965981 0.664486 0
0.95005 0.635963 0
0.934357 0.608365 0
0.887638 0.581586 0
0.980291 0.636133 0
0.966232 0.607413 0
CELLS 297 1188
3 0 24 1 
3 1 25 2 
3 2 26 3 
3 3 27 4 
3 4 28 5 
3 5 29 6 
3 6 30 7 
3 7 31 8 
3 8 32 9 
3 9 10 11 
3 33 24 0 
3 33 34 24 
3 24 25 1 
3 24 35 25 
3 25 26 2 
3 25 36 26 
3 26 27 3 
3 26 37 27 
3 27 28 4 
3 27 38 28 
3 28 29 5 
3 28 39 29 
3 29 30 6 
3 29 40 30 
3 30 31 7 
3 30 41 31 
3 31 32 8 
3 31 42 32 
3 32 10 9 
3 43 34 33 
3 43 44 34 
3 34 35 24 
3 34 45 35 
3 35 36 25 
3 35 46 36 
3 36 37 26 
3 36 47 37 
3 37 38 27 
3 37 48 38 
3 38 39 28 
3 38 49 39 
3 39 40 29 
3 39 50 40 
3 40 41 30 
3 40 51 41 
3 41 42 31 
3 41 52 42 
3 42 53 32 
3 54 44 43 
3 54 55 44 
3 44 45 34 
3 44 56 45 
3 45 46 35 
3 45 57 46 
3 46 47 36 
3 46 58 47 
3 47 48 37 
3 47 59 48 
3 48 49 38 
3 48 60 49 
3 49 50 39 
3 49 61 50 
3 50 51 40 
3 50 62 51 
3 51 52 41 
3 51 63 52 
3 52 64 42 
3 55 56 44 
3 55 65 56 
3 56 57 45 
3 56 66 57 
3 57 58 46 
3 57 67 58 
3 58 59 47 
3 58 68 59 
3 59 60 48 
3 59 69 60 
3 60 61 49 
3 60 70 61 
3 61 62 50 
3 61 71 62 
3 62 63 51 
3 62 72 63 
3 63 73 52 
3 74 65 55 
3 74 75 65 
3 65 66 56 
3 65 76 66 
3 66 67 57 
3 66 77 67 
3 67 68 58 
3 67 78 68 
3 68 69 59 
3 68 79 69 
3 69 70 60 
3 69 80 70 
3 70 71 61 
3 70 81 71 
3 71 72 62 
3 71 82 72 
3 72 83 63 
3 75 76 65 
3 75 84 76 
3 76 77 66 
3 76 85 77 
3 77 78 67 
3 77 86 78 
3 78 79 68 
3 78 87 79 
3 79 80 69 
3 79 88 80 
3 80 81 70 
3 80 89 81 
3 81 82 71 
3 81 90 82 
3 82 91 72 
3 84 85 76 
3 84 92 85 
3 85 86 77 
3 85 93 86 
3 86 87 78 
3 86 94 87 
3 87 88 79 
3 87 95 88 
3 88 89 80 
3 88 96 89 
3 89 90 81 
3 89 97 90 
3 90 98 82 
3 92 93 85 
3 92 99 93 
3 93 94 86 
3 93 100 94 
3 94 95 87 
3 94 101 95 
3 95 96 88 
3 95 102 96 
3 96 97 89 
3 96 103 97 
3 97 104 90 
3 99 100 93 
3 99 105 100 
3 100 101 94 
3 100 106 101 
3 101 102 95 
3 101 107 102 
3 102 103 96 
3 102 108 103 
3 103 109 97 
3 110 105 99 
3 110 111 105 
3 105 106 100 
3 105 112 106 
3 106 107 101 
3 106 113 107 
3 107 108 102 
3 107 114 108 
3 108 115 103 
3 111 112 105 
3 111 116 112 
3 112 113 106 
3 112 117 113 
3 113 114 107 
3 113 118 114 
3 114 119 108 
3 116 117 112 
3 116 120 117 
3 117 118 113 
3 117 121 118 
3 118 122 114 
3 123 120 116 
3 123 124 120 
3 120 121 117 
3 120 125 121 
3 121 126 118 
3 124 125 120 
3 125 127 121 
3 53 10 32 
3 42 64 53 
3 64 12 53 
3 52 73 64 
3 73 128 64 
3 63 83 73 
3 83 129 73 
3 72 91 83 
3 91 130 83 
3 82 98 91 
3 98 131 91 
3 90 104 98 
3 104 132 98 
3 97 109 104 
3 109 133 104 
3 103 115 109 
3 115 134 109 
3 108 119 115 
3 119 135 115 
3 114 122 119 
3 122 136 119 
3 118 126 122 
3 126 137 122 
3 121 127 126 
3 127 138 126 
3 128 12 64 
3 73 129 128 
3 129 13 128 
3 83 130 129 
3 130 139 129 
3 91 131 130 
3 131 140 130 
3 98 132 131 
3 132 141 131 
3 104 133 132 
3 133 142 132 
3 109 134 133 
3 134 143 133 
3 115 135 134 
3 135 144 134 
3 119 136 135 
3 136 145 135 
3 122 137 136 
3 137 146 136 
3 126 138 137 
3 138 147 137 
3 127 148 138 
3 148 149 138 
3 139 13 129 
3 130 140 139 
3 140 14 139 
3 131 141 140 
3 141 150 140 
3 132 142 141 
3 142 151 141 
3 133 143 142 
3 143 152 142 
3 134 144 143 
3 144 153 143 
3 135 145 144 
3 145 154 144 
3 136 146 145 
3 146 155 145 
3 137 147 146 
3 147 156 146 
3 138 149 147 
3 149 157 147 
3 148 158 149 
3 150 14 140 
3 141 151 150 
3 151 15 150 
3 142 152 151 
3 152 159 151 
3 143 153 152 
3 153 160 152 
3 144 154 153 
3 154 161 153 
3 145 155 154 
3 155 162 154 
3 146 156 155 
3 156 163 155 
3 147 157 156 
3 157 164 156 
3 149 165 157 
3 159 15 151 
3 152 160 159 
3 160 16 159 
3 153 161 160 
3 161 166 160 
3 154 162 161 
3 162 167 161 
3 155 163 162 
3 163 168 162 
3 156 164 163 
3 164 169 163 
3 157 170 164 
3 166 16 160 
3 161 167 166 
3 167 17 166 
3 162 168 167 
3 168 171 167 
3 163 169 168 
3 169 172 168 
3 171 17 167 
3 168 172 171 
3 172 18 171 
3 158 165 149 
3 165 170 157 
3 16 15 159 
3 10 53 19 
3 19 53 12 
3 12 128 13 
3 13 139 20 
3 20 139 14 
3 14 150 21 
3 21 150 15 
3 16 166 22 
3 22 166 17 
3 17 171 23 
3 23 171 18 
CELL_TYPES 297
5
5
5
5
5
5
5
5
5
5
5
5
5
5
5
5
5
5
5
5
5
5
5
5
5
5
5
5
5
5
5
5
5
5
5
5
5
5
5
5
5
5
5
5
5
5
5
5
5
5
5
5
5
5
5
5
5
5
5
5
5
5
5
5
5
5
5
5
5
5
5
5
5
5
5
5
5
5
5
5
5
5
5
5
5
5
5
5
5
5
5
5
5
5
5
5
5
5
5
5
5
5
5
5
5
5
5
5
5
5
5
5
5
5
5
5
5
5
5
5
5
5
5
5
5
5
5
5
5
5
5
5
5
5
5
5
5
5
5
5
5
5
5
5
5
5
5
5
5
5
5
5
5
5
5
5
5
5
5
5
5
5
5
5
5
5
5
5
5
5
5
5
5
5
5
5
5
5
5
5
5
5
5
5
5
5
5
5
5
5
5
5
5
5
5
5
5
5
5
5
5
5
5
5
5
5
5
5
5
5
5
5
5
5
5
5
5
5
5
5
5
5
5
5
5
5
5
5
5
5
5
5
5
5
5
5
5
5
5
5
5
5
5
5
5
5
5
5
5
5
5
5
5
5
5
5
5
5
5
5
5
5
5
5
5
5
5
5
5
5
5
5
5
5
5
5
5
5
5
5
5
5
5
5
5
5
5
5
5
5
5
5
5
5
5
5
5
CELL_DATA 297
SCALARS _ELEM_NUM double 1
LOOKUP_TABLE default
9 10 11 12 13 14 15 16 17 18 46 47 48 49 50 51 52 53 54 55 56 57 58 59 60 61 62 63 64 104 105 106 107 108 109 110 111 112 113 114 115 116 117 118 119 120 121 122 158 159 160 161 162 163 164 165 166 167 168 169 170 171 172 173 174 175 176 210 211 212 213 214 215 216 217 218 219 220 221 222 223 224 225 226 256 257 258 259 260 261 262 263 264 265 266 267 268 269 270 271 272 300 301 302 303 304 305 306 307 308 309 310 311 312 313 314 340 341 342 343 344 345 346 347 348 349 350 351 352 376 377 378 379 380 381 382 383 384 385 386 408 409 410 411 412 413 414 415 416 434 435 436 437 438 439 440 441 442 458 459 460 461 462 463 464 478 479 480 481 482 491 492 494 495 496 503 506 518 519 520 529 530 537 538 545 546 553 554 561 562 569 570 577 578 585 586 593 594 601 602 609 610 631 632 633 643 644 651 652 659 660 667 668 675 676 683 684 691 692 699 700 707 708 715 716 728 729 730 739 740 747 748 755 756 763 764 771 772 779 780 787 788 795 796 802 808 809 810 819 820 827 828 835 836 843 844 851 852 859 860 866 873 874 875 885 886 893 894 901 902 909 910 916 922 923 924 933 934 941 942 954 955 956 987 995 1187 1216 1217 1218 1219 1220 1221 1222 1223 1224 1225 1226 
POINT_DATA 173
SCALARS _NODE_NUM double 1
LOOKUP_TABLE default
620 621 622 623 624 625 626 627 628 629 631 613 633 634 636 638 639 641 643 632 635 637 640 642 1245 1244 1243 1242 1241 1240 1239 1238 1237 1246 1216 1215 1214 1213 1212 1211 1210 1209 1208 1217 1188 1187 1186 1185 1184 1183 1182 1181 1180 1179 1189 1159 1158 1157 1156 1155 1154 1153 1152 1151 1150 1131 1130 1129 1128 1127 1126 1125 1124 1123 1132 1106 1105 1104 1103 1102 1101 1100 1099 1098 1082 1081 1080 1079 1078 1077 1076 1075 1060 1059 1058 1057 1056 1055 1054 1040 1039 1038 1037 1036 1035 1022 1021 1020 1019 1018 1023 1007 1006 1005 1004 1003 993 992 991 990 981 980 979 983 973 971 970 963 954 950 946 942 938 934 930 926 922 918 914 902 898 894 890 886 882 878 874 870 910 866 858 854 850 846 842 838 834 830 826 822 818 814 810 806 802 798 794 790 786 782 778 774 770 
SCALARS _OWNER double 1
LOOKUP_TABLE default
0 2 2 2 2 2 2 2 2 2 2 2 2 2 2 2 2 2 1 2 2 2 2 2 2 2 2 2 2 2 2 2 2 0 2 2 2 2 2 2 2 2 2 0 2 2 2 2 2 2 2 2 2 2 0 0 2 2 2 2 2 2 2 2 2 2 2 2 2 2 2 2 2 2 0 0 2 2 2 2 2 2 2 2 0 2 2 2 2 2 2 2 0 2 2 2 2 2 2 0 2 2 2 2 2 2 2 2 2 2 0 0 2 2 2 2 0 2 2 2 2 2 2 0 0 1 2 1 2 2 2 2 2 2 2 2 2 2 2 2 2 2 2 2 2 2 2 2 1 2 2 2 2 2 2 2 2 2 1 2 2 2 2 2 1 1 2 2 2 1 1 2 1 
