# vtk DataFile Version 3.0
This file was generated by ESTES 
ASCII
DATASET UNSTRUCTURED_GRID
POINTS 197 double
0.5 1 0
0.529412 1 0
0.558824 1 0
0.588235 1 0
0.617647 1 0
0.647059 1 0
0.676471 1 0
0.705882 1 0
0.470588 1 0
0.441176 1 0
0.5 0.969697 0
0.537914 0.971668 0
0.570642 0.973019 0
0.601522 0.973541 0
0.631387 0.973622 0
0.661265 0.973833 0
0.69099 0.973986 0
0.5532 0.945578 0
0.584646 0.946903 0
0.615645 0.947402 0
0.645994 0.947714 0
0.67581 0.947827 0
0.568657 0.920547 0
0.521023 0.942121 0
0.599984 0.921353 0
0.630315 0.92155 0
0.660817 0.921819 0
0.584 0.895257 0
0.536312 0.918113 0
0.615005 0.895573 0
0.645412 0.895751 0
0.598885 0.869677 0
0.553393 0.89471 0
0.62998 0.869768 0
0.675425 0.895855 0
0.660432 0.8699 0
0.61446 0.843945 0
0.567665 0.86977 0
0.644942 0.843973 0
0.629767 0.817958 0
0.583222 0.843933 0
0.675456 0.84399 0
0.660477 0.818075 0
0.644546 0.792241 0
0.598514 0.818032 0
0.690382 0.818112 0
0.675155 0.792161 0
0.659976 0.766281 0
0.613914 0.792409 0
0.705214 0.792185 0
0.689991 0.766261 0
0.67495 0.740386 0
0.629324 0.76649 0
0.719996 0.766232 0
0.705 0.740308 0
0.690134 0.714416 0
0.644443 0.740479 0
0.719891 0.714342 0
0.704971 0.688267 0
0.65918 0.714396 0
0.734699 0.688335 0
0.719561 0.662149 0
0.674499 0.688386 0
0.689529 0.662237 0
0.704448 0.635499 0
0.734771 0.635489 0
0.5 0.909091 0
0.524431 0.894406 0
0.535697 0.871235 0
0.551246 0.844453 0
0.566787 0.818154 0
0.582861 0.792278 0
0.598448 0.766556 0
0.614012 0.740731 0
0.628755 0.714606 0
0.643838 0.688458 0
0.658954 0.66221 0
0.67408 0.635928 0
0.719653 0.609321 0
0.689241 0.609271 0
0.5 0.878788 0
0.520055 0.846663 0
0.53434 0.818211 0
0.551264 0.791807 0
0.567227 0.76655 0
0.583179 0.740996 0
0.598013 0.715039 0
0.612969 0.688706 0
0.628071 0.662291 0
0.643106 0.635452 0
0.658503 0.609011 0
0.704445 0.582468 0
0.5 0.818182 0
0.519955 0.789709 0
0.535175 0.765257 0
0.552453 0.741537 0
0.566992 0.715995 0
0.581909 0.689454 0
0.596847 0.662371 0
0.612247 0.635607 0
0.627772 0.608989 0
0.673926 0.58243 0
0.5 0.757576 0
0.524186 0.741939 0
0.535177 0.718316 0
0.550503 0.690899 0
0.565497 0.663112 0
0.581192 0.635891 0
0.596747 0.608871 0
0.643098 0.582114 0
0.5 0.727273 0
0.519738 0.694155 0
0.533935 0.664499 0
0.549937 0.636 0
0.565377 0.608431 0
0.612324 0.582043 0
0.5 0.666667 0
0.519614 0.636233 0
0.533736 0.607619 0
0.581374 0.581707 0
0.5 0.606061 0
0.550209 0.58057 0
0.689048 0.555168 0
0.658605 0.55527 0
0.627942 0.555358 0
0.596776 0.55465 0
0.565624 0.553977 0
0.581226 0.419404 0
0.565723 0.447047 0
0.550197 0.420177 0
0.519612 0.577836 0
0.719554 0.555153 0
0.704276 0.528081 0
0.673744 0.528205 0
0.643281 0.528183 0
0.612172 0.527856 0
0.580993 0.527471 0
0.596991 0.446643 0
0.581141 0.473846 0
0.534449 0.552426 0
0.534479 0.448117 0
0.627755 0.500872 0
0.59656 0.500753 0
0.612349 0.473995 0
0.55009 0.526823 0
0.550163 0.473934 0
0.564865 0.500568 0
0.5 0.545455 0
0.519699 0.422474 0
0.5 0.454545 0
0.522945 0.528065 0
0.523088 0.472556 0
0.53051 0.500289 0
0.5 0.515152 0
0.5 0.484848 0
0.5 0.575758 0
0.5 0.636364 0
0.5 0.69697 0
0.5 0.787879 0
0.5 0.848485 0
0.5 0.939394 0
0.470588 0.969697 0
0.470588 0.939394 0
0.470588 0.909091 0
0.470588 0.878788 0
0.470588 0.848485 0
0.470588 0.818182 0
0.470588 0.787879 0
0.470588 0.757576 0
0.470588 0.727273 0
0.470588 0.69697 0
0.470588 0.666667 0
0.470588 0.636364 0
0.470588 0.606061 0
0.470588 0.575758 0
0.470588 0.545455 0
0.470588 0.515152 0
0.470588 0.484848 0
0.470588 0.454545 0
0.441176 0.969697 0
0.441176 0.939394 0
0.441176 0.909091 0
0.441176 0.878788 0
0.441176 0.848485 0
0.441176 0.818182 0
0.441176 0.787879 0
0.441176 0.757576 0
0.441176 0.727273 0
0.441176 0.69697 0
0.441176 0.666667 0
0.441176 0.636364 0
0.441176 0.606061 0
0.441176 0.575758 0
0.441176 0.545455 0
0.441176 0.515152 0
0.441176 0.484848 0
0.441176 0.454545 0
CELLS 300 1236
3 0 10 1 
3 1 11 2 
3 2 12 3 
3 3 13 4 
3 4 14 5 
3 5 15 6 
3 6 16 7 
3 11 12 2 
3 11 17 12 
3 1 10 11 
3 12 13 3 
3 12 18 13 
3 13 14 4 
3 13 19 14 
3 14 15 5 
3 14 20 15 
3 15 16 6 
3 15 21 16 
3 17 18 12 
3 17 22 18 
3 11 23 17 
3 18 19 13 
3 18 24 19 
3 19 20 14 
3 19 25 20 
3 20 21 15 
3 20 26 21 
3 22 24 18 
3 22 27 24 
3 17 28 22 
3 24 25 19 
3 24 29 25 
3 25 26 20 
3 25 30 26 
3 27 29 24 
3 27 31 29 
3 22 32 27 
3 29 30 25 
3 29 33 30 
3 30 34 26 
3 30 35 34 
3 31 33 29 
3 31 36 33 
3 27 37 31 
3 33 35 30 
3 33 38 35 
3 36 38 33 
3 36 39 38 
3 31 40 36 
3 38 41 35 
3 38 42 41 
3 39 42 38 
3 39 43 42 
3 36 44 39 
3 42 45 41 
3 42 46 45 
3 43 46 42 
3 43 47 46 
3 39 48 43 
3 46 49 45 
3 46 50 49 
3 47 50 46 
3 47 51 50 
3 43 52 47 
3 50 53 49 
3 50 54 53 
3 51 54 50 
3 51 55 54 
3 47 56 51 
3 55 57 54 
3 55 58 57 
3 51 59 55 
3 58 60 57 
3 58 61 60 
3 55 62 58 
3 58 63 61 
3 61 64 65 
3 23 28 17 
3 23 66 28 
3 11 10 23 
3 28 32 22 
3 28 67 32 
3 32 37 27 
3 32 68 37 
3 37 40 31 
3 37 69 40 
3 40 44 36 
3 40 70 44 
3 44 48 39 
3 44 71 48 
3 48 52 43 
3 48 72 52 
3 52 56 47 
3 52 73 56 
3 56 59 51 
3 56 74 59 
3 59 62 55 
3 59 75 62 
3 62 63 58 
3 62 76 63 
3 63 64 61 
3 63 77 64 
3 64 78 65 
3 64 79 78 
3 67 68 32 
3 67 80 68 
3 28 66 67 
3 67 66 80 
3 68 69 37 
3 68 81 69 
3 69 70 40 
3 69 82 70 
3 70 71 44 
3 70 83 71 
3 71 72 48 
3 71 84 72 
3 72 73 52 
3 72 85 73 
3 73 74 56 
3 73 86 74 
3 74 75 59 
3 74 87 75 
3 75 76 62 
3 75 88 76 
3 76 77 63 
3 76 89 77 
3 77 79 64 
3 77 90 79 
3 79 91 78 
3 81 82 69 
3 81 92 82 
3 68 80 81 
3 82 83 70 
3 82 93 83 
3 83 84 71 
3 83 94 84 
3 84 85 72 
3 84 95 85 
3 85 86 73 
3 85 96 86 
3 86 87 74 
3 86 97 87 
3 87 88 75 
3 87 98 88 
3 88 89 76 
3 88 99 89 
3 89 90 77 
3 89 100 90 
3 90 101 79 
3 93 94 83 
3 93 102 94 
3 82 92 93 
3 94 95 84 
3 94 103 95 
3 95 96 85 
3 95 104 96 
3 96 97 86 
3 96 105 97 
3 97 98 87 
3 97 106 98 
3 98 99 88 
3 98 107 99 
3 99 100 89 
3 99 108 100 
3 100 109 90 
3 103 104 95 
3 103 110 104 
3 94 102 103 
3 103 102 110 
3 104 105 96 
3 104 111 105 
3 105 106 97 
3 105 112 106 
3 106 107 98 
3 106 113 107 
3 107 108 99 
3 107 114 108 
3 108 115 100 
3 111 112 105 
3 111 116 112 
3 104 110 111 
3 112 113 106 
3 112 117 113 
3 113 114 107 
3 113 118 114 
3 114 119 108 
3 117 118 113 
3 117 120 118 
3 112 116 117 
3 118 121 114 
3 79 101 91 
3 101 122 91 
3 90 109 101 
3 109 123 101 
3 100 115 109 
3 115 124 109 
3 108 119 115 
3 119 125 115 
3 114 121 119 
3 121 126 119 
3 127 128 129 
3 118 130 121 
3 91 122 131 
3 122 132 131 
3 101 123 122 
3 123 133 122 
3 109 124 123 
3 124 134 123 
3 115 125 124 
3 125 135 124 
3 119 126 125 
3 126 136 125 
3 137 128 127 
3 137 138 128 
3 121 139 126 
3 128 140 129 
3 122 133 132 
3 123 134 133 
3 124 135 134 
3 135 141 134 
3 125 136 135 
3 136 142 135 
3 143 138 137 
3 143 142 138 
3 126 144 136 
3 138 145 128 
3 135 142 141 
3 141 142 143 
3 136 146 142 
3 130 139 121 
3 130 147 139 
3 118 120 130 
3 129 140 148 
3 140 149 148 
3 139 144 126 
3 139 150 144 
3 128 145 140 
3 145 151 140 
3 144 146 136 
3 144 152 146 
3 138 146 145 
3 146 138 142 
3 150 152 144 
3 150 153 152 
3 139 147 150 
3 150 147 153 
3 151 149 140 
3 151 154 149 
3 145 152 151 
3 152 145 146 
3 154 152 153 
3 154 151 152 
3 147 130 155 
3 155 130 120 
3 120 117 156 
3 156 117 116 
3 116 111 157 
3 157 111 110 
3 102 93 158 
3 158 93 92 
3 92 81 159 
3 159 81 80 
3 66 23 160 
3 160 23 10 
4 161 10 0 8 
4 162 160 10 161 
4 163 66 160 162 
4 164 80 66 163 
4 165 159 80 164 
4 166 92 159 165 
4 167 158 92 166 
4 168 102 158 167 
4 169 110 102 168 
4 170 157 110 169 
4 171 116 157 170 
4 172 156 116 171 
4 173 120 156 172 
4 174 155 120 173 
4 175 147 155 174 
4 176 153 147 175 
4 177 154 153 176 
4 178 149 154 177 
4 179 161 8 9 
4 180 162 161 179 
4 181 163 162 180 
4 182 164 163 181 
4 183 165 164 182 
4 184 166 165 183 
4 185 167 166 184 
4 186 168 167 185 
4 187 169 168 186 
4 188 170 169 187 
4 189 171 170 188 
4 190 172 171 189 
4 191 173 172 190 
4 192 174 173 191 
4 193 175 174 192 
4 194 176 175 193 
4 195 177 176 194 
4 196 178 177 195 
CELL_TYPES 300
5
5
5
5
5
5
5
5
5
5
5
5
5
5
5
5
5
5
5
5
5
5
5
5
5
5
5
5
5
5
5
5
5
5
5
5
5
5
5
5
5
5
5
5
5
5
5
5
5
5
5
5
5
5
5
5
5
5
5
5
5
5
5
5
5
5
5
5
5
5
5
5
5
5
5
5
5
5
5
5
5
5
5
5
5
5
5
5
5
5
5
5
5
5
5
5
5
5
5
5
5
5
5
5
5
5
5
5
5
5
5
5
5
5
5
5
5
5
5
5
5
5
5
5
5
5
5
5
5
5
5
5
5
5
5
5
5
5
5
5
5
5
5
5
5
5
5
5
5
5
5
5
5
5
5
5
5
5
5
5
5
5
5
5
5
5
5
5
5
5
5
5
5
5
5
5
5
5
5
5
5
5
5
5
5
5
5
5
5
5
5
5
5
5
5
5
5
5
5
5
5
5
5
5
5
5
5
5
5
5
5
5
5
5
5
5
5
5
5
5
5
5
5
5
5
5
5
5
5
5
5
5
5
5
5
5
5
5
5
5
5
5
5
5
5
5
5
5
5
5
5
5
5
5
5
5
5
5
5
5
5
5
5
5
9
9
9
9
9
9
9
9
9
9
9
9
9
9
9
9
9
9
9
9
9
9
9
9
9
9
9
9
9
9
9
9
9
9
9
9
CELL_DATA 300
SCALARS _ELEM_NUM double 1
LOOKUP_TABLE default
2 3 4 5 6 7 8 35 36 37 38 39 40 41 42 43 44 45 95 96 97 98 99 100 101 102 103 151 152 153 154 155 156 157 203 204 205 206 207 208 209 251 252 253 254 255 295 296 297 298 299 335 336 337 338 339 371 372 373 374 375 403 404 405 406 407 431 432 433 455 456 457 475 476 477 493 505 515 516 517 527 528 535 536 543 544 551 552 559 560 567 568 575 576 583 584 591 592 599 600 607 608 615 616 627 628 629 630 641 642 649 650 657 658 665 666 673 674 681 682 689 690 697 698 705 706 713 714 721 725 726 727 737 738 745 746 753 754 761 762 769 770 777 778 785 786 793 794 801 805 806 807 817 818 825 826 833 834 841 842 849 850 857 858 865 869 870 871 872 883 884 891 892 899 900 907 908 915 919 920 921 931 932 939 940 947 951 952 953 963 977 978 985 986 993 994 1001 1002 1009 1010 1016 1017 1025 1026 1033 1034 1041 1042 1049 1050 1057 1058 1063 1064 1065 1068 1073 1081 1089 1090 1097 1098 1103 1104 1105 1108 1119 1120 1123 1125 1126 1127 1135 1136 1143 1144 1149 1150 1159 1160 1164 1167 1169 1170 1171 1172 1180 1181 1182 1185 1202 1203 1204 1205 1206 1207 1208 1209 1210 1211 1212 1213 1214 1215 1245 1246 1247 1248 1249 1250 1251 1252 1253 1254 1255 1256 1257 1258 1259 1260 1261 1262 1278 1279 1280 1281 1282 1283 1284 1285 1286 1287 1288 1289 1290 1291 1292 1293 1294 1295 
POINT_DATA 197
SCALARS _NODE_NUM double 1
LOOKUP_TABLE default
2 614 615 616 617 618 619 620 100 99 34 1251 1250 1249 1248 1247 1246 1221 1220 1219 1218 1217 1193 1192 1191 1190 1189 1163 1162 1161 1160 1135 1134 1133 1159 1132 1109 1108 1107 1085 1084 1106 1083 1063 1062 1082 1061 1043 1042 1060 1041 1025 1024 1040 1023 1009 1008 1007 995 994 993 983 982 972 964 973 32 955 951 947 943 939 935 931 927 923 919 915 958 911 31 903 899 895 891 887 883 879 875 871 867 863 29 859 855 851 847 843 839 835 831 827 27 823 819 815 811 807 803 799 26 795 791 787 783 779 24 775 771 767 22 763 755 751 747 743 739 764 736 760 735 758 729 725 721 717 713 740 710 709 706 697 695 714 693 690 687 20 732 17 685 682 680 19 18 21 23 25 28 30 33 101 117 133 149 165 181 197 213 229 245 261 277 293 309 325 341 357 373 102 118 134 150 166 182 198 214 230 246 262 278 294 310 326 342 358 374 
SCALARS _OWNER double 1
LOOKUP_TABLE default
0 0 0 0 0 0 0 0 0 0 0 0 0 0 0 0 0 0 0 0 0 0 0 0 0 0 0 0 0 0 0 0 0 0 0 0 0 0 0 0 0 0 0 0 0 0 0 0 0 0 0 0 0 0 0 0 0 0 0 0 0 0 0 0 0 0 0 0 0 0 0 0 0 0 0 0 0 0 0 0 0 0 0 0 0 0 0 0 0 0 0 0 0 0 0 0 0 0 0 0 0 0 0 0 0 0 0 0 0 0 0 0 0 0 0 0 0 0 0 0 0 0 0 0 0 0 0 0 0 0 0 0 0 0 0 0 0 0 0 0 0 0 0 0 0 0 0 0 0 0 0 0 0 0 0 0 0 0 0 0 0 0 0 0 0 0 0 0 0 0 0 0 0 0 0 0 0 0 0 0 0 0 0 0 0 0 0 0 0 0 0 0 0 0 0 0 0 
