# vtk DataFile Version 3.0
This file was generated by ESTES 
ASCII
DATASET UNSTRUCTURED_GRID
POINTS 174 double
1 0 0
1 0.030303 0
0.970588 0 0
0.941176 0 0
0.911765 0 0
0.882353 0 0
0.852941 0 0
0.823529 0 0
0.794118 0 0
0.764706 0 0
0.735294 0 0
0.705882 0 0
0.676471 0 0
0.647059 0 0
0.617647 0 0
0.588235 0 0
0.558824 0 0
1 0.0909091 0
1 0.121212 0
1 0.181818 0
1 0.242424 0
1 0.272727 0
1 0.212121 0
1 0.151515 0
1 0.0606061 0
0.962079 0.0283379 0
0.929365 0.02697 0
0.89851 0.0264521 0
0.86863 0.0263756 0
0.838741 0.0261668 0
0.809012 0.0260135 0
0.779483 0.0259866 0
0.750027 0.0259815 0
0.720599 0.0259804 0
0.69118 0.0259801 0
0.661521 0.0260678 0
0.631625 0.0262939 0
0.601591 0.0263487 0
0.570665 0.0270212 0
0.946786 0.0544181 0
0.915252 0.0530551 0
0.884314 0.0525817 0
0.853997 0.0522812 0
0.824189 0.0521714 0
0.794404 0.0519991 0
0.764828 0.051966 0
0.735346 0.0519606 0
0.705904 0.0519599 0
0.67632 0.0519906 0
0.646235 0.05218 0
0.616336 0.0523238 0
0.58488 0.0529917 0
0.537822 0.0284051 0
0.552936 0.054554 0
0.931555 0.0794664 0
0.978961 0.0578761 0
0.900173 0.0787474 0
0.869699 0.0784254 0
0.839179 0.0781687 0
0.809336 0.0780228 0
0.779674 0.0779547 0
0.750128 0.0779392 0
0.720648 0.0779379 0
0.691173 0.0779363 0
0.661063 0.07809 0
0.630574 0.0783208 0
0.59986 0.0785126 0
0.56867 0.079354 0
0.521026 0.0579345 0
0.915656 0.104562 0
0.963758 0.0819317 0
0.884858 0.104363 0
0.854529 0.104201 0
0.824553 0.104132 0
0.794624 0.103964 0
0.76496 0.103921 0
0.735421 0.103914 0
0.705938 0.103913 0
0.675809 0.104014 0
0.645381 0.104179 0
0.614923 0.104254 0
0.583879 0.10454 0
0.536393 0.0817391 0
0.900827 0.130274 0
0.946596 0.105232 0
0.869874 0.130186 0
0.8395 0.130074 0
0.809724 0.130045 0
0.779874 0.129918 0
0.750237 0.129892 0
0.720707 0.129889 0
0.690635 0.129952 0
0.66021 0.130029 0
0.629717 0.130114 0
0.599014 0.130141 0
0.553479 0.104852 0
0.885332 0.156056 0
0.932016 0.130284 0
0.855019 0.156029 0
0.824515 0.156004 0
0.794734 0.155915 0
0.765061 0.155871 0
0.73549 0.155864 0
0.70561 0.155847 0
0.675402 0.155914 0
0.645138 0.155956 0
0.614088 0.155996 0
0.567577 0.130075 0
0.870052 0.182036 0
0.916953 0.156024 0
0.839449 0.181924 0
0.809583 0.181886 0
0.779877 0.181851 0
0.750275 0.181839 0
0.720665 0.181808 0
0.690387 0.18183 0
0.659862 0.181816 0
0.629437 0.181733 0
0.583052 0.155892 0
0.855243 0.207776 0
0.901286 0.18185 0
0.824835 0.207821 0
0.794773 0.207814 0
0.76509 0.207812 0
0.735499 0.207799 0
0.705512 0.207733 0
0.674918 0.207712 0
0.644619 0.207673 0
0.598605 0.181761 0
0.840026 0.233681 0
0.88575 0.207621 0
0.810018 0.233748 0
0.779998 0.233767 0
0.75033 0.233777 0
0.720665 0.233727 0
0.690502 0.233689 0
0.659836 0.233555 0
0.613754 0.20754 0
0.870584 0.233504 0
0.735559 0.259729 0
0.705658 0.259646 0
0.675195 0.259574 0
0.629262 0.233399 0
0.72042 0.28582 0
0.68995 0.285864 0
0.644578 0.259384 0
0.704889 0.312148 0
0.659611 0.285687 0
0.674512 0.312025 0
0.5 0.0909091 0
0.975582 0.105609 0
0.5245 0.105644 0
0.964186 0.12876 0
0.53545 0.1287 0
0.948618 0.155602 0
0.551531 0.155384 0
0.933325 0.181803 0
0.566889 0.181746 0
0.917138 0.207668 0
0.58285 0.207575 0
0.901422 0.233423 0
0.5 0.121212 0
0.979874 0.153339 0
0.520145 0.153581 0
0.965661 0.181791 0
0.534343 0.181603 0
0.948733 0.208203 0
0.550944 0.208118 0
0.932777 0.233421 0
0.980044 0.210292 0
0.964828 0.234743 0
0.947539 0.258451 0
0.975811 0.258058 0
0.964924 0.281721 0
CELLS 296 1184
3 0 1 2 
3 2 25 3 
3 3 26 4 
3 4 27 5 
3 5 28 6 
3 6 29 7 
3 7 30 8 
3 8 31 9 
3 9 32 10 
3 10 33 11 
3 11 34 12 
3 12 35 13 
3 13 36 14 
3 14 37 15 
3 15 38 16 
3 25 26 3 
3 25 39 26 
3 2 1 25 
3 26 27 4 
3 26 40 27 
3 27 28 5 
3 27 41 28 
3 28 29 6 
3 28 42 29 
3 29 30 7 
3 29 43 30 
3 30 31 8 
3 30 44 31 
3 31 32 9 
3 31 45 32 
3 32 33 10 
3 32 46 33 
3 33 34 11 
3 33 47 34 
3 34 35 12 
3 34 48 35 
3 35 36 13 
3 35 49 36 
3 36 37 14 
3 36 50 37 
3 37 38 15 
3 37 51 38 
3 38 52 16 
3 38 53 52 
3 39 40 26 
3 39 54 40 
3 25 55 39 
3 40 41 27 
3 40 56 41 
3 41 42 28 
3 41 57 42 
3 42 43 29 
3 42 58 43 
3 43 44 30 
3 43 59 44 
3 44 45 31 
3 44 60 45 
3 45 46 32 
3 45 61 46 
3 46 47 33 
3 46 62 47 
3 47 48 34 
3 47 63 48 
3 48 49 35 
3 48 64 49 
3 49 50 36 
3 49 65 50 
3 50 51 37 
3 50 66 51 
3 51 53 38 
3 51 67 53 
3 53 68 52 
3 54 56 40 
3 54 69 56 
3 39 70 54 
3 56 57 41 
3 56 71 57 
3 57 58 42 
3 57 72 58 
3 58 59 43 
3 58 73 59 
3 59 60 44 
3 59 74 60 
3 60 61 45 
3 60 75 61 
3 61 62 46 
3 61 76 62 
3 62 63 47 
3 62 77 63 
3 63 64 48 
3 63 78 64 
3 64 65 49 
3 64 79 65 
3 65 66 50 
3 65 80 66 
3 66 67 51 
3 66 81 67 
3 67 82 53 
3 69 71 56 
3 69 83 71 
3 54 84 69 
3 71 72 57 
3 71 85 72 
3 72 73 58 
3 72 86 73 
3 73 74 59 
3 73 87 74 
3 74 75 60 
3 74 88 75 
3 75 76 61 
3 75 89 76 
3 76 77 62 
3 76 90 77 
3 77 78 63 
3 77 91 78 
3 78 79 64 
3 78 92 79 
3 79 80 65 
3 79 93 80 
3 80 81 66 
3 80 94 81 
3 81 95 67 
3 83 85 71 
3 83 96 85 
3 69 97 83 
3 85 86 72 
3 85 98 86 
3 86 87 73 
3 86 99 87 
3 87 88 74 
3 87 100 88 
3 88 89 75 
3 88 101 89 
3 89 90 76 
3 89 102 90 
3 90 91 77 
3 90 103 91 
3 91 92 78 
3 91 104 92 
3 92 93 79 
3 92 105 93 
3 93 94 80 
3 93 106 94 
3 94 107 81 
3 96 98 85 
3 96 108 98 
3 83 109 96 
3 98 99 86 
3 98 110 99 
3 99 100 87 
3 99 111 100 
3 100 101 88 
3 100 112 101 
3 101 102 89 
3 101 113 102 
3 102 103 90 
3 102 114 103 
3 103 104 91 
3 103 115 104 
3 104 105 92 
3 104 116 105 
3 105 106 93 
3 105 117 106 
3 106 118 94 
3 108 110 98 
3 108 119 110 
3 96 120 108 
3 110 111 99 
3 110 121 111 
3 111 112 100 
3 111 122 112 
3 112 113 101 
3 112 123 113 
3 113 114 102 
3 113 124 114 
3 114 115 103 
3 114 125 115 
3 115 116 104 
3 115 126 116 
3 116 117 105 
3 116 127 117 
3 117 128 106 
3 119 121 110 
3 119 129 121 
3 108 130 119 
3 121 122 111 
3 121 131 122 
3 122 123 112 
3 122 132 123 
3 123 124 113 
3 123 133 124 
3 124 125 114 
3 124 134 125 
3 125 126 115 
3 125 135 126 
3 126 127 116 
3 126 136 127 
3 127 137 117 
3 129 131 121 
3 119 138 129 
3 131 132 122 
3 132 133 123 
3 133 134 124 
3 133 139 134 
3 134 135 125 
3 134 140 135 
3 135 136 126 
3 135 141 136 
3 136 142 127 
3 139 140 134 
3 139 143 140 
3 140 141 135 
3 140 144 141 
3 141 145 136 
3 143 144 140 
3 143 146 144 
3 144 147 141 
3 146 148 144 
3 55 70 39 
3 55 17 70 
3 25 1 55 
3 53 82 68 
3 82 149 68 
3 70 84 54 
3 70 150 84 
3 67 95 82 
3 95 151 82 
3 84 97 69 
3 84 152 97 
3 81 107 95 
3 107 153 95 
3 97 109 83 
3 97 154 109 
3 94 118 107 
3 118 155 107 
3 109 120 96 
3 109 156 120 
3 106 128 118 
3 128 157 118 
3 120 130 108 
3 120 158 130 
3 117 137 128 
3 137 159 128 
3 130 138 119 
3 130 160 138 
3 127 142 137 
3 136 145 142 
3 141 147 145 
3 144 148 147 
3 150 152 84 
3 150 18 152 
3 70 17 150 
3 150 17 18 
3 151 149 82 
3 95 153 151 
3 153 161 151 
3 152 154 97 
3 152 162 154 
3 107 155 153 
3 155 163 153 
3 154 156 109 
3 154 164 156 
3 118 157 155 
3 157 165 155 
3 156 158 120 
3 156 166 158 
3 128 159 157 
3 159 167 157 
3 158 160 130 
3 158 168 160 
3 162 164 154 
3 162 19 164 
3 152 18 162 
3 163 161 153 
3 155 165 163 
3 164 166 156 
3 164 169 166 
3 157 167 165 
3 166 168 158 
3 166 170 168 
3 169 170 166 
3 169 20 170 
3 164 19 169 
3 170 171 168 
3 170 172 171 
3 172 173 171 
3 172 21 173 
3 170 20 172 
3 172 20 21 
3 149 151 161 
3 20 169 22 
3 22 169 19 
3 19 162 23 
3 23 162 18 
3 17 55 24 
3 24 55 1 
CELL_TYPES 296
5
5
5
5
5
5
5
5
5
5
5
5
5
5
5
5
5
5
5
5
5
5
5
5
5
5
5
5
5
5
5
5
5
5
5
5
5
5
5
5
5
5
5
5
5
5
5
5
5
5
5
5
5
5
5
5
5
5
5
5
5
5
5
5
5
5
5
5
5
5
5
5
5
5
5
5
5
5
5
5
5
5
5
5
5
5
5
5
5
5
5
5
5
5
5
5
5
5
5
5
5
5
5
5
5
5
5
5
5
5
5
5
5
5
5
5
5
5
5
5
5
5
5
5
5
5
5
5
5
5
5
5
5
5
5
5
5
5
5
5
5
5
5
5
5
5
5
5
5
5
5
5
5
5
5
5
5
5
5
5
5
5
5
5
5
5
5
5
5
5
5
5
5
5
5
5
5
5
5
5
5
5
5
5
5
5
5
5
5
5
5
5
5
5
5
5
5
5
5
5
5
5
5
5
5
5
5
5
5
5
5
5
5
5
5
5
5
5
5
5
5
5
5
5
5
5
5
5
5
5
5
5
5
5
5
5
5
5
5
5
5
5
5
5
5
5
5
5
5
5
5
5
5
5
5
5
5
5
5
5
5
5
5
5
5
5
5
5
5
5
5
5
5
5
5
5
5
5
5
5
5
5
5
5
5
5
5
5
5
5
5
5
5
5
5
5
CELL_DATA 296
SCALARS _ELEM_NUM double 1
LOOKUP_TABLE default
19 20 21 22 23 24 25 26 27 28 29 30 31 32 33 65 66 67 68 69 70 71 72 73 74 75 76 77 78 79 80 81 82 83 84 85 86 87 88 89 90 91 92 93 123 124 125 126 127 128 129 130 131 132 133 134 135 136 137 138 139 140 141 142 143 144 145 146 147 148 149 150 177 178 179 180 181 182 183 184 185 186 187 188 189 190 191 192 193 194 195 196 197 198 199 200 201 202 227 228 229 230 231 232 233 234 235 236 237 238 239 240 241 242 243 244 245 246 247 248 249 250 273 274 275 276 277 278 279 280 281 282 283 284 285 286 287 288 289 290 291 292 293 294 315 316 317 318 319 320 321 322 323 324 325 326 327 328 329 330 331 332 333 334 353 354 355 356 357 358 359 360 361 362 363 364 365 366 367 368 369 370 387 388 389 390 391 392 393 394 395 396 397 398 399 400 401 402 417 419 420 422 424 425 426 427 428 429 430 450 451 452 453 454 472 473 474 490 521 522 523 525 526 531 532 533 534 539 540 541 542 547 548 549 550 555 556 557 558 563 564 565 566 571 572 573 581 589 597 634 635 636 637 638 639 640 645 646 647 648 653 654 655 656 661 662 663 664 669 670 731 732 733 734 735 741 742 743 749 750 811 812 813 821 822 876 877 878 879 1191 1237 1238 1239 1240 1241 1242 
POINT_DATA 174
SCALARS _NODE_NUM double 1
LOOKUP_TABLE default
630 662 663 664 665 666 667 668 669 670 671 672 673 674 675 676 677 660 659 657 655 654 656 658 661 1236 1235 1234 1233 1232 1231 1230 1229 1228 1227 1226 1225 1224 1223 1207 1206 1205 1204 1203 1202 1201 1200 1199 1198 1197 1196 1195 1222 1194 1178 1177 1176 1175 1174 1173 1172 1171 1170 1169 1168 1167 1166 1165 1164 1149 1148 1147 1146 1145 1144 1143 1142 1141 1140 1139 1138 1137 1136 1122 1121 1120 1119 1118 1117 1116 1115 1114 1113 1112 1111 1110 1097 1096 1095 1094 1093 1092 1091 1090 1089 1088 1087 1086 1074 1073 1072 1071 1070 1069 1068 1067 1066 1065 1064 1053 1052 1051 1050 1049 1048 1047 1046 1045 1044 1034 1033 1032 1031 1030 1029 1028 1027 1026 1016 1013 1012 1011 1010 998 997 996 985 984 974 5 953 952 949 948 945 944 941 940 937 936 933 6 901 900 897 896 893 892 889 857 853 849 821 817 
SCALARS _OWNER double 1
LOOKUP_TABLE default
3 3 3 3 3 3 3 3 3 3 3 3 3 3 3 3 3 3 3 3 3 1 3 3 3 3 3 3 3 3 3 3 3 3 3 3 3 3 3 3 3 3 3 3 3 3 3 3 3 3 3 3 3 3 3 3 3 3 3 3 3 3 3 3 3 3 3 3 3 3 3 3 3 3 3 3 3 3 3 3 3 3 3 3 3 3 3 3 3 3 3 3 3 3 3 3 3 3 3 3 3 3 3 3 3 3 3 3 3 3 3 3 3 3 3 3 3 3 3 3 3 3 3 3 3 3 3 3 3 1 3 1 1 1 3 3 3 3 1 1 3 3 3 1 3 3 1 3 1 3 3 3 3 3 3 3 3 3 3 3 1 3 3 3 3 3 3 3 1 3 3 1 3 1 
