# vtk DataFile Version 3.0
This file was generated by ESTES 
ASCII
DATASET UNSTRUCTURED_GRID
POINTS 178 double
1 0.333333 0
1 0.272727 0
1 0.393939 0
1 0.606061 0
1 0.545455 0
1 0.454545 0
1 0.515152 0
1 0.484848 0
1 0.575758 0
1 0.424242 0
1 0.363636 0
1 0.30303 0
0.840026 0.233681 0
0.825091 0.259665 0
0.810018 0.233748 0
0.794999 0.259686 0
0.779998 0.233767 0
0.765218 0.259731 0
0.75033 0.233777 0
0.810545 0.285994 0
0.855603 0.259615 0
0.780109 0.285655 0
0.735559 0.259729 0
0.750421 0.285697 0
0.795388 0.312094 0
0.840688 0.285868 0
0.765164 0.312213 0
0.72042 0.28582 0
0.734991 0.312402 0
0.78005 0.338383 0
0.825543 0.312063 0
0.749951 0.338653 0
0.704889 0.312148 0
0.719757 0.338824 0
0.764894 0.365519 0
0.810509 0.338692 0
0.7348 0.365589 0
0.689407 0.339034 0
0.734771 0.635489 0
0.749967 0.608815 0
0.764969 0.635689 0
0.749785 0.392394 0
0.795439 0.36559 0
0.704453 0.365713 0
0.780371 0.608867 0
0.719653 0.609321 0
0.719515 0.392873 0
0.780233 0.392333 0
0.870584 0.233504 0
0.886554 0.259446 0
0.871398 0.285702 0
0.856204 0.312086 0
0.841095 0.33857 0
0.674512 0.312025 0
0.658773 0.338884 0
0.826016 0.365715 0
0.674038 0.365616 0
0.795317 0.635742 0
0.810791 0.609004 0
0.810684 0.392483 0
0.68923 0.392573 0
0.765255 0.582082 0
0.73484 0.58231 0
0.73472 0.41935 0
0.765138 0.419716 0
0.901422 0.233423 0
0.917165 0.259001 0
0.902042 0.285109 0
0.887214 0.31184 0
0.871758 0.338279 0
0.85651 0.365281 0
0.643292 0.365446 0
0.841424 0.392359 0
0.658564 0.392505 0
0.795697 0.582023 0
0.795557 0.41965 0
0.704344 0.419528 0
0.932777 0.233421 0
0.947539 0.258451 0
0.933199 0.284201 0
0.918271 0.311172 0
0.903023 0.338147 0
0.88769 0.365156 0
0.62818 0.338468 0
0.612342 0.365323 0
0.872216 0.392212 0
0.627978 0.392398 0
0.826046 0.419416 0
0.673797 0.419518 0
0.964924 0.281721 0
0.94941 0.309282 0
0.934388 0.33738 0
0.91887 0.364919 0
0.903206 0.392234 0
0.59673 0.392287 0
0.856705 0.419363 0
0.643148 0.419561 0
0.980297 0.3059 0
0.96613 0.335928 0
0.949976 0.364538 0
0.934533 0.392417 0
0.887634 0.419344 0
0.612294 0.419428 0
0.980301 0.364136 0
0.966325 0.39287 0
0.903117 0.608752 0
0.918586 0.581467 0
0.934357 0.608365 0
0.918732 0.419399 0
0.949866 0.58036 0
0.966232 0.607413 0
0.949901 0.420019 0
0.780524 0.555278 0
0.704445 0.582468 0
0.719554 0.555153 0
0.719513 0.44673 0
0.780366 0.446786 0
0.826113 0.582055 0
0.810905 0.555192 0
0.810943 0.44666 0
0.689124 0.446675 0
0.841582 0.554904 0
0.856968 0.581748 0
0.841422 0.446422 0
0.658565 0.446648 0
0.87223 0.554663 0
0.887638 0.581586 0
0.872175 0.446403 0
0.62787 0.446844 0
0.90316 0.554407 0
0.903154 0.446474 0
0.581226 0.419404 0
0.596991 0.446643 0
0.93398 0.55401 0
0.934452 0.446889 0
0.980335 0.577858 0
0.980299 0.422293 0
0.795718 0.528153 0
0.750098 0.555198 0
0.704343 0.473957 0
0.749925 0.446761 0
0.795647 0.47381 0
0.826115 0.528074 0
0.826025 0.473801 0
0.673794 0.474022 0
0.856908 0.527884 0
0.856848 0.473673 0
0.643248 0.474114 0
0.887956 0.52752 0
0.887704 0.473718 0
0.612349 0.473995 0
0.918724 0.527167 0
0.918818 0.473722 0
0.965517 0.5524 0
0.96561 0.447961 0
0.810901 0.500884 0
0.765292 0.52819 0
0.704276 0.528081 0
0.734824 0.52808 0
0.673744 0.528205 0
0.689016 0.501062 0
0.734779 0.47412 0
0.765224 0.473834 0
0.643281 0.528183 0
0.658424 0.501108 0
0.841488 0.500873 0
0.872363 0.500566 0
0.627755 0.500872 0
0.903524 0.50054 0
0.949777 0.526665 0
0.949628 0.474014 0
0.780495 0.501135 0
0.719524 0.501098 0
0.935265 0.500401 0
0.977022 0.528015 0
0.976972 0.472528 0
0.749989 0.500985 0
0.969895 0.500139 0
CELLS 305 1220
3 12 13 14 
3 14 15 16 
3 16 17 18 
3 13 15 14 
3 13 19 15 
3 12 20 13 
3 15 17 16 
3 15 21 17 
3 17 22 18 
3 17 23 22 
3 19 21 15 
3 19 24 21 
3 13 25 19 
3 21 23 17 
3 21 26 23 
3 23 27 22 
3 23 28 27 
3 24 26 21 
3 24 29 26 
3 19 30 24 
3 26 28 23 
3 26 31 28 
3 28 32 27 
3 28 33 32 
3 29 31 26 
3 29 34 31 
3 24 35 29 
3 31 33 28 
3 31 36 33 
3 33 37 32 
3 38 39 40 
3 34 36 31 
3 34 41 36 
3 29 42 34 
3 36 43 33 
3 39 44 40 
3 38 45 39 
3 41 46 36 
3 34 47 41 
3 48 20 12 
3 48 49 20 
3 20 25 13 
3 20 50 25 
3 25 30 19 
3 25 51 30 
3 30 35 24 
3 30 52 35 
3 32 37 53 
3 37 54 53 
3 35 42 29 
3 35 55 42 
3 33 43 37 
3 43 56 37 
3 40 44 57 
3 44 58 57 
3 42 47 34 
3 42 59 47 
3 36 46 43 
3 46 60 43 
3 39 61 44 
3 45 62 39 
3 41 63 46 
3 47 64 41 
3 65 49 48 
3 65 66 49 
3 49 50 20 
3 49 67 50 
3 50 51 25 
3 50 68 51 
3 51 52 30 
3 51 69 52 
3 52 55 35 
3 52 70 55 
3 37 56 54 
3 56 71 54 
3 55 59 42 
3 55 72 59 
3 43 60 56 
3 60 73 56 
3 44 74 58 
3 59 75 47 
3 46 76 60 
3 77 66 65 
3 77 78 66 
3 66 67 49 
3 66 79 67 
3 67 68 50 
3 67 80 68 
3 68 69 51 
3 68 81 69 
3 69 70 52 
3 69 82 70 
3 54 71 83 
3 71 84 83 
3 70 72 55 
3 70 85 72 
3 56 73 71 
3 73 86 71 
3 72 87 59 
3 60 88 73 
3 78 79 66 
3 78 89 79 
3 79 80 67 
3 79 90 80 
3 80 81 68 
3 80 91 81 
3 81 82 69 
3 81 92 82 
3 82 85 70 
3 82 93 85 
3 71 86 84 
3 86 94 84 
3 85 95 72 
3 73 96 86 
3 89 90 79 
3 89 97 90 
3 90 91 80 
3 90 98 91 
3 91 92 81 
3 91 99 92 
3 92 93 82 
3 92 100 93 
3 93 101 85 
3 86 102 94 
3 97 98 90 
3 97 0 98 
3 89 1 97 
3 98 99 91 
3 98 103 99 
3 99 100 92 
3 99 104 100 
3 105 106 107 
3 100 108 93 
3 103 104 99 
3 103 2 104 
3 98 0 103 
3 107 109 110 
3 104 111 100 
3 61 74 44 
3 61 112 74 
3 39 62 61 
3 45 113 62 
3 113 114 62 
3 63 76 46 
3 63 115 76 
3 41 64 63 
3 47 75 64 
3 75 116 64 
3 74 117 58 
3 74 118 117 
3 59 87 75 
3 87 119 75 
3 76 88 60 
3 76 120 88 
3 117 121 122 
3 72 95 87 
3 95 123 87 
3 88 96 73 
3 88 124 96 
3 122 125 126 
3 85 101 95 
3 101 127 95 
3 96 102 86 
3 96 128 102 
3 126 106 105 
3 126 129 106 
3 93 108 101 
3 108 130 101 
3 102 131 94 
3 102 132 131 
3 106 109 107 
3 106 133 109 
3 100 111 108 
3 111 134 108 
3 109 135 110 
3 104 136 111 
3 112 118 74 
3 112 137 118 
3 61 138 112 
3 114 138 62 
3 115 120 76 
3 115 139 120 
3 63 140 115 
3 116 140 64 
3 75 119 116 
3 119 141 116 
3 118 121 117 
3 118 142 121 
3 87 123 119 
3 123 143 119 
3 120 124 88 
3 120 144 124 
3 121 125 122 
3 121 145 125 
3 95 127 123 
3 127 146 123 
3 124 128 96 
3 124 147 128 
3 125 129 126 
3 125 148 129 
3 101 130 127 
3 130 149 127 
3 128 132 102 
3 128 150 132 
3 129 133 106 
3 129 151 133 
3 108 134 130 
3 134 152 130 
3 133 153 109 
3 111 154 134 
3 137 142 118 
3 137 155 142 
3 112 156 137 
3 157 158 114 
3 159 160 157 
3 139 144 120 
3 139 160 144 
3 115 161 139 
3 141 162 116 
3 119 143 141 
3 143 155 141 
3 163 164 159 
3 142 145 121 
3 142 165 145 
3 123 146 143 
3 146 165 143 
3 144 147 124 
3 144 164 147 
3 145 148 125 
3 145 166 148 
3 127 149 146 
3 149 166 146 
3 147 150 128 
3 147 167 150 
3 148 151 129 
3 148 168 151 
3 130 152 149 
3 152 168 149 
3 151 169 133 
3 134 170 152 
3 155 165 142 
3 155 143 165 
3 137 171 155 
3 160 172 157 
3 159 164 160 
3 160 164 144 
3 163 167 164 
3 164 167 147 
3 165 166 145 
3 165 146 166 
3 166 168 148 
3 166 149 168 
3 168 173 151 
3 135 3 110 
3 109 153 135 
3 153 4 135 
3 136 154 111 
3 136 5 154 
3 104 2 136 
3 138 156 112 
3 138 158 156 
3 61 62 138 
3 140 161 115 
3 140 162 161 
3 63 64 140 
3 133 169 153 
3 169 174 153 
3 154 170 134 
3 154 175 170 
3 156 171 137 
3 156 176 171 
3 158 138 114 
3 157 172 158 
3 172 176 158 
3 161 172 139 
3 162 140 116 
3 141 171 162 
3 151 173 169 
3 173 177 169 
3 170 173 152 
3 171 141 155 
3 160 139 172 
3 168 152 173 
3 174 4 153 
3 174 6 4 
3 169 177 174 
3 177 6 174 
3 175 177 170 
3 154 5 175 
3 5 7 175 
3 176 162 171 
3 156 158 176 
3 173 170 177 
3 3 135 8 
3 8 135 4 
3 6 177 7 
3 7 177 175 
3 5 136 9 
3 9 136 2 
3 2 103 10 
3 10 103 0 
3 0 97 11 
3 11 97 1 
3 162 176 161 
3 161 176 172 
CELL_TYPES 305
5
5
5
5
5
5
5
5
5
5
5
5
5
5
5
5
5
5
5
5
5
5
5
5
5
5
5
5
5
5
5
5
5
5
5
5
5
5
5
5
5
5
5
5
5
5
5
5
5
5
5
5
5
5
5
5
5
5
5
5
5
5
5
5
5
5
5
5
5
5
5
5
5
5
5
5
5
5
5
5
5
5
5
5
5
5
5
5
5
5
5
5
5
5
5
5
5
5
5
5
5
5
5
5
5
5
5
5
5
5
5
5
5
5
5
5
5
5
5
5
5
5
5
5
5
5
5
5
5
5
5
5
5
5
5
5
5
5
5
5
5
5
5
5
5
5
5
5
5
5
5
5
5
5
5
5
5
5
5
5
5
5
5
5
5
5
5
5
5
5
5
5
5
5
5
5
5
5
5
5
5
5
5
5
5
5
5
5
5
5
5
5
5
5
5
5
5
5
5
5
5
5
5
5
5
5
5
5
5
5
5
5
5
5
5
5
5
5
5
5
5
5
5
5
5
5
5
5
5
5
5
5
5
5
5
5
5
5
5
5
5
5
5
5
5
5
5
5
5
5
5
5
5
5
5
5
5
5
5
5
5
5
5
5
5
5
5
5
5
5
5
5
5
5
5
5
5
5
5
5
5
5
5
5
5
5
5
5
5
5
5
5
5
5
5
5
5
5
5
5
5
5
5
5
5
CELL_DATA 305
SCALARS _ELEM_NUM double 1
LOOKUP_TABLE default
418 421 423 443 444 445 446 447 448 449 465 466 467 468 469 470 471 483 484 485 486 487 488 489 497 498 499 500 501 502 504 507 508 509 510 511 512 513 514 579 580 587 588 595 596 603 604 605 606 611 612 613 614 617 618 619 620 621 622 623 624 625 626 677 678 685 686 693 694 701 702 709 710 711 712 717 718 719 720 722 723 724 757 758 765 766 773 774 781 782 789 790 791 792 797 798 799 800 803 804 829 830 837 838 845 846 853 854 861 862 863 864 867 868 887 888 895 896 903 904 911 912 917 918 925 926 927 935 936 943 944 948 949 957 958 959 964 965 967 968 969 970 971 972 973 974 975 976 979 980 981 982 983 984 988 989 990 991 992 996 997 998 999 1000 1003 1004 1005 1006 1007 1008 1011 1012 1013 1014 1018 1019 1021 1022 1023 1024 1027 1028 1029 1030 1031 1032 1035 1036 1037 1038 1039 1040 1043 1044 1045 1046 1047 1048 1051 1052 1053 1054 1055 1056 1059 1060 1061 1062 1066 1067 1069 1070 1071 1072 1074 1075 1076 1077 1078 1079 1080 1082 1083 1084 1085 1086 1087 1088 1091 1092 1093 1094 1095 1096 1099 1100 1101 1102 1106 1107 1109 1110 1111 1112 1113 1114 1115 1116 1117 1118 1121 1122 1124 1128 1129 1130 1131 1132 1133 1137 1138 1139 1140 1141 1142 1145 1146 1147 1148 1151 1152 1153 1154 1155 1156 1157 1158 1161 1162 1163 1165 1166 1168 1173 1174 1175 1176 1177 1178 1179 1183 1184 1186 1227 1228 1229 1230 1231 1232 1233 1234 1235 1236 1243 1244 
POINT_DATA 178
SCALARS _NODE_NUM double 1
LOOKUP_TABLE default
652 654 650 643 645 648 646 647 644 649 651 653 1034 1017 1032 1015 1031 1014 1030 1002 1001 1000 1013 999 989 988 987 998 986 978 977 976 985 975 969 968 967 966 973 965 971 962 961 960 959 958 957 956 1016 929 925 921 917 974 916 913 912 963 910 909 908 907 906 905 904 933 885 881 877 873 869 868 865 864 862 861 860 889 849 845 841 837 833 872 832 829 828 825 824 817 813 809 805 801 800 797 796 793 789 785 781 777 776 773 769 802 766 782 765 762 770 761 759 863 758 757 756 826 754 753 752 750 798 749 748 746 778 745 744 742 741 764 740 738 737 734 733 731 730 728 727 726 724 723 722 720 719 718 716 715 714 712 711 708 707 705 704 729 703 725 702 701 700 721 699 698 696 697 694 692 691 689 688 686 684 683 681 679 
SCALARS _OWNER double 1
LOOKUP_TABLE default
1 1 1 1 1 1 1 1 1 1 1 1 1 1 1 1 1 1 1 1 1 1 1 1 1 1 1 1 1 1 1 1 1 1 1 1 1 1 0 1 1 1 1 1 1 0 1 1 1 1 1 1 1 1 1 1 1 1 1 1 1 1 1 1 1 1 1 1 1 1 1 1 1 1 1 1 1 1 1 1 1 1 1 1 1 1 1 1 1 1 1 1 1 1 1 1 1 1 1 1 1 1 1 1 1 1 1 1 1 1 1 1 1 0 0 1 1 1 1 1 1 1 1 1 1 1 1 1 1 1 1 0 0 1 1 1 1 1 1 1 1 1 1 1 1 1 1 1 1 1 0 1 1 1 1 1 1 0 1 0 1 1 1 0 1 1 1 0 1 1 1 1 1 1 1 1 1 1 
